% Model:              Scatter_Reflection_2D_Heikkiv2.mph
% Version:            COMSOL 5.6.0.280
% Date:               Nov 11 2021, 09:59
% Table:              Table 3 - Transducer1
% t (s)                  Electric potential (V), Point: 10Electric potential (V), Point: 15Electric potential (V), Point: 22Electric potential (V), Point: 29Electric potential (V), Point: 34Electric potential (V), Point: 39Electric potential (V), Point: 46Electric potential (V), Point: 50
0                        0                        0                        0                        0                        0                        0                        0                        0
2.0E-7                   3.0350623092349803E-4    3.0349604647930505E-4    3.0349569477322233E-4    3.034958810507686E-4     3.0349609247379934E-4    3.034968202196199E-4     3.034977785765018E-4     1.6871650892539412E-14
4.0E-7                   0.002183002538156308     0.0021829468848765764    0.0021829438646482546    0.0021829483590007043    0.0021829467186818344    0.0021829503937738116    0.0021829558195210394    -1.8549428099071636E-14
6.0E-7                   0.007962745703420657     0.00796262909832795      0.007962619058774427     0.00796263261555507      0.007962628981778791     0.007962638982493981     0.007962649336543249     -4.354252760902693E-13
8.000000000000002E-7     0.018492435980685305     0.018492290901752608     0.0184922684971788       0.018492296996486975     0.018492289906791633     0.018492307362319483     0.01849231844501703      -5.393640444402572E-13
1.0E-6                   0.023718766514660435     0.023698353994524284     0.023698334694209514     0.023698354051397568     0.023698356231476526     0.02369835991654782      0.02369834776269393      7.671785741909905E-11
1.2E-6                   -0.012529956431114056    -0.012626842279794742    -0.012626807081097853    -0.012626873124162238    -0.012626832821796243    -0.012626903015306968    -0.012626991897301756    -4.043380287922802E-10
1.4E-6                   -0.1539647179943849      -0.15403108044140668     -0.1540308719546319      -0.15403117682340747     -0.1540310606900319      -0.1540312911486895      -0.154031517208416       -7.094392642439888E-10
1.6E-6                   -0.4418651417748719      -0.44166367484452285     -0.44162092728474756     -0.4416215827846684      -0.4416214239197414      -0.4416218853520498      -0.4416602715450797      7.313634293506034E-9
1.8E-6                   -0.7840057510012598      -0.783613665860218       -0.7825856724497693      -0.7825865528686923      -0.7825865266152611      -0.7825871248786042      -0.7836187010077181      4.951623335645615E-8
2.0E-6                   -0.8671410165177604      -0.8667015602522021      -0.8635837897325568      -0.8635843689688446      -0.8635847522476279      -0.863585028775426       -0.8667068899859333      1.660698204868675E-7
2.2E-6                   -0.259912474017196       -0.2594958090819636      -0.25644295697027564     -0.25644221124109845     -0.25644332690382055     -0.2564423217274309      -0.2595196747713991      3.486581263260631E-7
2.4E-6                   1.2283609706609904       1.2286404186161222       1.2311393373757413       1.2309823869412642       1.2309925952450171       1.2311481939503721       1.2286614781848466       3.596872473447453E-7
2.5999999999999997E-6    3.1739647693761253       3.1738229076046407       3.1758404312210344       3.1753270451091185       3.1750178386453687       3.1760027804362707       3.174003129242541        -4.790918752311504E-7
2.8E-6                   4.58620410191065         4.585949491656553        4.5880203947353975       4.584396818977767        4.587207909687237        4.588273151116952        4.5862525119796675       -3.1414820634200358E-6
3.0E-6                   4.533325691125283        4.533204811058545        4.535465665211746        4.529981891427898        4.535199377764843        4.535717207711187        4.53348399203            -7.934534372533345E-6
3.2E-6                   2.890542868696722        2.890094758827461        2.8926434545965947       2.888567845837726        2.892593671023851        2.8927816389751153       2.890209290632617        -1.2904705331943171E-5
3.3999999999999996E-6    0.510760715396944        0.509530785540845        0.5123445157111314       0.509059431908           0.5123768974656401       0.5123410536932976       0.5094341017104056       -1.3286488045133012E-5
3.6E-6                   -1.377516828231424       -1.379070727514941       -1.3761048008209797      -1.3795099087865195      -1.376190102877329       -1.3761718796225186      -1.3792488764730282      -3.8021697446727336E-6
3.8E-6                   -2.0045828257577276      -2.005689458676047       -2.002662950706233       -2.0069375465051076      -2.002911775220001       -2.0026557878491054      -2.0057336834420045      1.6877869338905965E-5
4.0E-6                   -1.434426599766317       -1.4346464475379013      -1.4316334545957         -1.4371383804773854      -1.4320271307783934      -1.4314889175065506      -1.4344329182988593      4.3255728426638064E-5
4.2E-6                   -0.306807185633699       -0.3061657942100008      -0.30325413538983786     -0.3096932708933025      -0.3037181891449741      -0.30300878663250225     -0.3057545882175913      6.505888180986192E-5
4.4E-6                   0.6825430097780633       0.6833603159506536       0.6860916502192457       0.6794225031865078       0.6856192156401612       0.6863305538755587       0.6837740184965858       7.325568600915298E-5
4.6E-6                   1.136509790343294        1.1362925724795205       1.1388131861955193       1.132299666667843        1.1383741903749875       1.1389759864783753       1.1365260821101033       6.530662980885944E-5
4.8E-6                   1.0166220244670348       1.0147971721739952       1.0171573104143805       1.010969079532392        1.0167634063878788       1.0172415936518637       1.0147838881287232       4.603812594984354E-5
4.9999999999999996E-6    0.5231458422052581       0.5204215736326144       0.5227523222234355       0.5170229381239102       0.5223991809585594       0.5227780113247089       0.5202315046377769       2.5115614215519587E-5
5.199999999999999E-6     -0.06260453858519832     -0.06517233967233681     -0.06276445873193592     -0.06799771386351477     -0.06306783413245477     -0.06277147869637903     -0.06539516448624391     1.3660370274307073E-5
5.4E-6                   -0.5034963212579479      -0.5053274647960194      -0.502762259864105       -0.5076304803427122      -0.5030365403005456      -0.5027872362028865      -0.5054570471109268      2.0138135225884167E-5
5.6E-6                   -0.6772881801732021      -0.6778514936708666      -0.6751035346961994      -0.6798111081402408      -0.6753303659695564      -0.6750986818035537      -0.6777560344223016      4.459753179291828E-5
5.7999999999999995E-6    -0.5871712285967212      -0.5865968970425752      -0.5837219589504056      -0.5884777748391198      -0.5839084253945065      -0.5836340757424239      -0.5862894047041252      7.367180416897202E-5
6.0E-6                   -0.32807687964308463     -0.32701653919470974     -0.3240646169569525      -0.3290203620178069      -0.32429968395969805     -0.3239405808651708      -0.3266045903449588      8.361541476225493E-5
6.2E-6                   -0.029519272697494357    -0.028625059277769555    -0.02567746168898968     -0.0308982184717772      -0.02605257894913164     -0.025651632521396784    -0.028255479042131285    5.36493574886207E-5
6.4E-6                   0.19883720843108119      0.1989823184419118       0.20179317701011146      0.19628971280022187      0.20134585877764527      0.20177775404145168      0.19923327839318447      -1.6820341082426204E-5
6.5999999999999995E-6    0.2990130524604791       0.2982724877007573       0.3008114108114          0.2951286907647467       0.30046983449701087      0.3009229305311419       0.2983551510048852       -1.0235221542939386E-4
6.799999999999999E-6     0.2703141541562374       0.26883295352528847      0.2711192408184588       0.2654344555310177       0.27094526867640656      0.2714167809296385       0.26874523116766585      -1.6545611004152024E-4
7.0E-6                   0.15392480039935974      0.15208254835923304      0.15434993802125124      0.14880283643330894      0.15417940258250845      0.15464934090349988      0.15190618270538223      -1.8182717372008402E-4
7.2E-6                   0.00904237061809312      0.007260115950365755     0.009726322866874746     0.004365020917992439     0.00938853764956563      0.009823300506833546     0.007117442259530817     -1.557788450315368E-4
7.3999999999999995E-6    -0.11023008197334894     -0.11154421015970567     -0.10891089539735749     -0.11410996900729826     -0.10933648028349675     -0.10896051534757953     -0.11154611340955004     -1.1307051878556868E-4
7.6E-6                   -0.17070461200855197     -0.17140113216679437     -0.1687887500881361      -0.17388966156097208     -0.16908314616311157     -0.16876031952861362     -0.17128607308027435     -8.082198087172982E-5
7.8E-6                   -0.1665678565281884      -0.16663560154660115     -0.1640715688400435      -0.16915461009948235     -0.1642087814822436      -0.16391567549234692     -0.16647538754046545     -7.399173378259478E-5
8.0E-6                   -0.11487204111459857     -0.11464194547745027     -0.11192484521969155     -0.1170419432555586      -0.11212644427861082     -0.11182627518037433     -0.11441048006463382     -9.46428395374955E-5
8.2E-6                   -0.044479149621718034    -0.04440169386488364     -0.04151105971486038     -0.04668216529236002     -0.04191776220301968     -0.04157628848259113     -0.04413016841250836     -1.3313811455759161E-4
8.4E-6                   0.01648673006955501      0.01614719552660276      0.018943270823589493     0.013714743780373285     0.01847381355799243      0.018865824858549464     0.016376988906407278     -1.655495020880803E-4
8.599999999999999E-6     0.0499306922001187       0.049167601597448776     0.051676800986047385     0.046397334762295524     0.05136570716233134      0.051777759291266275     0.04930462615533959      -1.5883082672331862E-4
8.8E-6                   0.05145553110879957      0.050456209445619016     0.05273813389940412      0.04741855915660104      0.052577942928902055     0.05297163468598023      0.05047538170582592      -9.330064515539038E-5
9.0E-6                   0.02844212603423427      0.02733033161987205      0.029625753482864448     0.024314758877229878     0.02942215476668027      0.029803037625953765     0.02726853148888202      1.3884800100784903E-5
9.2E-6                   -0.005432773478316212    -0.006616298644574666    -0.004163123869548197    -0.009418936882627375    -0.004499846893651763    -0.004105425826814797    -0.006651506421800501    1.1396004262859198E-4
9.4E-6                   -0.03634691302973313     -0.0374775111180682      -0.03495080404473121     -0.04013102242625141     -0.03531222316254649     -0.034910453178251435    -0.037416345109177684    1.6262772906871603E-4
9.6E-6                   -0.05487484060400692     -0.055758684242471816    -0.05326825322716564     -0.05838115288515857     -0.05353778861425623     -0.05317138137433364     -0.05562086809106494     1.5386736626697614E-4
9.8E-6                   -0.057908446771051676    -0.05845158877481196     -0.05596315858293662     -0.061043395811794944    -0.0561820046384143      -0.05585318930637186     -0.05832160982574601     1.1915226520785839E-4
9.999999999999999E-6     -0.04809286798977252     -0.04844569078365835     -0.04585953876740483     -0.050953035578981974    -0.04614240381526417     -0.04578922869141882     -0.048348025724335185    9.604808508020442E-5
1.0199999999999999E-5    -0.03169539538033946     -0.03212247058561132     -0.029446763696038047    -0.03456872821811672     -0.02980854318883194     -0.02938873591867144     -0.03201286962602727     9.829601114432468E-5
1.0399999999999999E-5    -0.015754712223690858    -0.016391252080904604    -0.013748783382862615    -0.018862789115960787    -0.014092095123944074    -0.013663775423525896    -0.01624306003569266     1.1236164070468335E-4
1.06E-5                  -0.0054995231500198595   -0.006291802569943165    -0.0037805309617046485   -0.008855084214808809    -0.004016951933745543    -0.0036842315776853514   -0.006147306391678171    1.1762210441286574E-4
1.08E-5                  -0.002946688161354939    -0.003764207086905012    -0.0013801524483900965   -0.006460869903764247    -0.001548133228569469    -0.0013093768231527468   -0.0036916576597269247   1.062678779625026E-4
1.1E-5                   -0.007006904942097369    -0.007796636951719904    -0.005438762794176557    -0.010567953524573343    -0.005657336643617268    -0.005380067053679569    -0.007780046558887054    8.432334744678327E-5
1.12E-5                  -0.014647014306538248    -0.01542606021595471     -0.012993729213376272    -0.018134949220656317    -0.013326809715783114    -0.012903696265679917    -0.015377520649960163    5.942230902332482E-5
1.14E-5                  -0.02238099141330551     -0.02315870442349546     -0.02063457889036582     -0.02571552971705751     -0.021012131891301626    -0.02050031736758817     -0.02301753356428093     3.423515215186941E-5
1.1599999999999999E-5    -0.027531714845954548    -0.028271408414274522    -0.025720049452680995    -0.030749381176145372    -0.02604282521627895     -0.02559993234520837     -0.028090459413804073    1.0794930417671542E-5
1.1799999999999999E-5    -0.028966038865325137    -0.02962051776453006     -0.02711273625271317     -0.0321619180097694      -0.027379893504162905    -0.02707246551791574     -0.029506267979735084    -6.140796325154388E-6
1.2E-5                   -0.027121271238739784    -0.027687519986965982    -0.02523339402780654     -0.030333147563963922    -0.025519628973214494    -0.02525145825797454     -0.027674321626583807    -1.2955610490009645E-5
1.22E-5                  -0.02341206768526011     -0.023947294468911674    -0.021510812903671305    -0.026585421409136344    -0.02183500088519923     -0.02147809711655837     -0.023949271138296205    -1.1610048700062431E-5
1.24E-5                  -0.01946413571266763     -0.020034822254503693    -0.017595043812422512    -0.022552821498120733    -0.017868992380576112    -0.017445556423644898    -0.019944633517718163    -8.429608664366035E-6
1.26E-5                  -0.016567812325807403    -0.017184905092742994    -0.014744028664446912    -0.01963272236194809     -0.014907877529759427    -0.014552113927985505    -0.017001884474367797    -9.367386053269278E-6
1.28E-5                  -0.015410598717805013    -0.016026630802415603    -0.013577167328449937    -0.018533104284674785    -0.013711362801974897    -0.013476771030189292    -0.015850249365490628    -1.6271303386192346E-5
1.3E-5                   -0.015967368416976907    -0.016529233869460154    -0.01405752349825486     -0.019108990561713265    -0.014302691612020739    -0.014067204261605076    -0.01644010890191389     -2.7508882089037102E-5
1.3199999999999999E-5    -0.017602620230266694    -0.018105306010908314    -0.015631794118939595    -0.020670334977313794    -0.016012069791042152    -0.015627498909560972    -0.01808163480915107     -4.029287431786151E-5
1.3399999999999999E-5    -0.019441499494626997    -0.019925933590625753    -0.017496356195686923    -0.022446952748040646    -0.017899859697773263    -0.017376480264022044    -0.019887598520697707    -5.150272083163772E-5
1.3599999999999999E-5    -0.020802356162784138    -0.02130026476383079     -0.018912818284033964    -0.023844742595011147    -0.019238600651301598    -0.018737045746396435    -0.02120690569188792     -5.6688625244471144E-5
1.38E-5                  -0.021373798135898743    -0.021872644451877525    -0.01946892433029091     -0.024443989677907087    -0.019721312359139456    -0.01936594394368857     -0.021749143614661275    -5.23324886174994E-5
1.4E-5                   -0.021145202929485164    -0.02161775070376783     -0.019164942969963683    -0.024145212584520594    -0.01939920476924755     -0.01915181542224702     -0.021502156839305318    -4.0444427703462776E-5
1.42E-5                  -0.020316838559501848    -0.020773141027438578    -0.01829700232564073     -0.023236029273843717    -0.01855171582883285     -0.018275646673100245    -0.02067193941605945     -2.7835662477960155E-5
1.44E-5                  -0.019267538939010075    -0.01974134705659365     -0.017281149906679033    -0.022197429399234567    -0.017562971029792724    -0.017190719825634058    -0.019646045552699738    -1.9601023570961515E-5
1.4599999999999999E-5    -0.018434502281146938    -0.018930541392794133    -0.016505028216533504    -0.021425712326387302    -0.016796064639156224    -0.016389816618635752    -0.018838658761180842    -1.5195694470057976E-5
1.4799999999999999E-5    -0.018092592093118413    -0.018577627112313574    -0.01619786501677374     -0.021111858774088544    -0.016466629495101616    -0.01611783620685164     -0.018488173710007026    -1.1828682675528144E-5
1.4999999999999999E-5    -0.018230323370758736    -0.018691798638022294    -0.016355004325348164    -0.02123190729875351     -0.01659211189515979     -0.016304031360449295    -0.01860295281629461     -9.001892599555948E-6
1.52E-5                  -0.018637246072612336    -0.019125048050708245    -0.01680059275332601     -0.021650523389574176    -0.017024934441422297    -0.01673296937310299     -0.019048888408445708    -8.128344752101528E-6
1.5399999999999998E-5    -0.01907920342010301     -0.019670208039660266    -0.017323622711390162    -0.022170489627921404    -0.017560878480982037    -0.017214904898294796    -0.01962275878525143     -8.993274506285097E-6
1.56E-5                  -0.019408567147391736    -0.020133383341981118    -0.017752012704716436    -0.022579163289485865    -0.018016464249798175    -0.017614765241537253    -0.020084338412922925    -8.953985273934414E-6
1.5799999999999998E-5    -0.019576880333177       -0.02036568214028685     -0.017927692486398725    -0.0227660126721169      -0.018258863076815148    -0.017833447813697893    -0.020252052263394583    -5.205314151327498E-6
1.6E-5                   -0.019590828249304162    -0.020291373477966196    -0.017773122659087374    -0.02275841632415825     -0.018229095822073004    -0.017830259061504507    -0.02013318725760244     2.4426024831283796E-6
1.62E-5                  -0.019460526543463228    -0.019982699927778947    -0.017517729819664863    -0.02262341292973164     -0.017990307282121008    -0.017656488407698463    -0.019908454998541502    1.1157131465340143E-5
1.64E-5                  -0.01920411819407912     -0.01974435578419602     -0.01771130869982109     -0.022392169664828845    -0.017707563372602618    -0.017429776689694417    -0.01973715049003975     1.6687828649401783E-5
1.66E-5                  -0.018908543144024622    -0.019983344245232505    -0.01866784526753811     -0.0221272193260484      -0.017531226438245194    -0.017251990379978432    -0.019626160569797782    1.7118011653457927E-5
1.68E-5                  -0.018722844102190484    -0.020747376378890594    -0.0197211803470849      -0.021941257854861722    -0.017486711762916482    -0.01715649911731977     -0.019513036488696636    1.4821192331923878E-5
1.7E-5                   -0.01873200638760675     -0.021356565775555898    -0.01927689216462213     -0.021916966934616776    -0.01749742719229996     -0.01712212074241724     -0.019409071510541838    1.4140498813647866E-5
1.7199999999999998E-5    -0.018858546500196166    -0.02070290446163184     -0.016072353344514966    -0.02201487171971756     -0.01750337631494059     -0.017125401343900674    -0.019384596507556844    1.5961300141917893E-5
1.74E-5                  -0.018947716615209737    -0.018163619775963574    -0.010725425978808984    -0.02209851037139866     -0.01750857730631553     -0.01715570433919138     -0.019449608741497152    1.676365752554581E-5
1.76E-5                  -0.01893260568051355     -0.014352821862640967    -0.006053677900974412    -0.02207803873663561     -0.017530946152799542    -0.017192601305662948    -0.01952716525990069     1.4358178948088315E-5
1.78E-5                  -0.018860511510499       -0.011044371932867347    -0.00548384705423217     -0.022037953126731104    -0.017538323012096096    -0.017197943353154107    -0.019534919955257423    1.1875231263195477E-5
1.8E-5                   -0.01878705044081839     -0.010306902317685773    -0.010600864696509954    -0.022109239361361614    -0.017477623923867862    -0.017136629152670828    -0.01945242360934882     1.2938049802531787E-5
1.82E-5                  -0.018737512914156408    -0.013389366054200616    -0.019812573429661594    -0.022247788072920962    -0.017346690211455067    -0.01700601722034869     -0.019313785832135822    1.555046525447464E-5
1.84E-5                  -0.01875697274036725     -0.01988476239040844     -0.02922463227015873     -0.022159393097312123    -0.017213238861457855    -0.016866173427243947    -0.019175028776362298    1.4166750482677591E-5
1.8599999999999998E-5    -0.018868192847457128    -0.02762451298297662     -0.034992970628415714    -0.021616438766171753    -0.0171355664793846      -0.016797811585439297    -0.019076947208587592    7.203011490689861E-6
1.88E-5                  -0.018937351862233182    -0.033616383260650744    -0.035343555021564034    -0.02081430233738836     -0.017104513495162656    -0.016796595055379615    -0.019018312757123436    -5.633318941926669E-7
1.8999999999999998E-5    -0.018708972902526183    -0.035613506522002784    -0.030948795221438577    -0.020215214440988456    -0.017070480453923797    -0.01676841395739771     -0.018975712166205368    -3.393406368216532E-6
1.92E-5                  -0.01811768840556692     -0.033205122298250477    -0.023858060430461285    -0.019930823072923643    -0.01700822037459964     -0.01666193446216506     -0.018938873935055615    -1.4602292997536587E-6
1.94E-5                  -0.017497975218806357    -0.027627315291554003    -0.01618165311425823     -0.01955340091680575     -0.016923993781052207    -0.016540128073959083    -0.01890679858796156     -5.536095166947123E-7
1.96E-5                  -0.01726984065694639     -0.02070258233444817     -0.009486478758814053    -0.018853241504984124    -0.016834447175811763    -0.016482546241713882    -0.018858392783067272    -4.717073271458443E-6
1.98E-5                  -0.017360846128074002    -0.014019953599860219    -0.004832723055917534    -0.01844545036155975     -0.016763493817586964    -0.016473908990183795    -0.01877334100666831     -1.0826190891594535E-5
1.9999999999999998E-5    -0.017191305499776766    -0.008816119644429483    -0.002876909357636503    -0.019336615814119995    -0.01673398147879404     -0.016442470786718417    -0.018682090009230323    -1.2464198878189151E-5
2.02E-5                  -0.01645808464662029     -0.006050848332381299    -0.0037410127281494207   -0.02175719677165384     -0.01673387974682221     -0.016366417670567974    -0.018639917666732005    -8.570893900397467E-6
2.0399999999999998E-5    -0.015802841189466014    -0.00617474962732588     -0.006889760340241444    -0.024743717812966217    -0.01670589218039804     -0.01629629976207118     -0.018644958571253107    -4.99663369711667E-6
2.06E-5                  -0.016349427890246977    -0.008819460081484968    -0.011260698858455471    -0.026965237478397908    -0.01661711798110179     -0.016270679365794037    -0.018621916920876103    -6.79946084421463E-6
2.0799999999999997E-5    -0.018459261672247873    -0.012901675655676851    -0.015626017312854987    -0.027785357941106113    -0.01651730106291437     -0.016266489547072504    -0.01853137888626415     -1.1826760775790992E-5
2.1E-5                   -0.021146666078724296    -0.017129578652778157    -0.018970222401769054    -0.027422620263445417    -0.016500704567462526    -0.016243114337996214    -0.01844335359672038     -1.3556976089960374E-5
2.12E-5                  -0.022938729842645462    -0.02047814874722796     -0.020708996473195677    -0.026219132448171645    -0.016585731967377414    -0.016201487554637694    -0.018441420430939146    -9.222947203279642E-6
2.14E-5                  -0.02323993937261595     -0.02237741039671511     -0.02073761504429985     -0.02411989527798769     -0.01667108952627075     -0.016164790622556477    -0.018491043325123593    -2.8930156056359725E-6
2.16E-5                  -0.022635529346432915    -0.022718525183166742    -0.019403367648185847    -0.02101415769278491     -0.016633381405781102    -0.016137348660868477    -0.018485853413829873    -4.3876608371475476E-7
2.1799999999999998E-5    -0.02191082581721605     -0.021803560257087642    -0.017408048045281316    -0.017376584202792658    -0.016451042714196826    -0.01611937589285145     -0.018404422756547096    -2.7666251672438322E-6
2.2E-5                   -0.021070003327028183    -0.0202071804542628      -0.015611206621394327    -0.014324047483393654    -0.016216214261880565    -0.016122347849703525    -0.018336858894534062    -5.497906346555841E-6
2.2199999999999998E-5    -0.019481659904325377    -0.018577570897382635    -0.014732434514638845    -0.01293817260954815     -0.016060339217129304    -0.016150688796634238    -0.018348536314449337    -4.774767396963791E-6
2.24E-5                  -0.016836515270345926    -0.01747929912260373     -0.01504880248956469     -0.013561928120218059    -0.016076099578493055    -0.016185423448735112    -0.0183935064204596      -1.4616548535591656E-6
2.26E-5                  -0.013767121869747295    -0.017271620217130093    -0.016276133744170963    -0.015699448884311212    -0.016235930281287194    -0.016190248842403034    -0.01839260609690319     1.2052339379383256E-6
2.28E-5                  -0.01151296994250811     -0.017960324155110768    -0.017765392546341848    -0.01845161728225669     -0.016346942373547214    -0.01615203686941381     -0.018337048768642002    1.838086193527135E-6
2.3E-5                   -0.011028030325246683    -0.01915568890485437     -0.018902428377649664    -0.021012274370384783    -0.016146492851951445    -0.01610279113869269     -0.01828013240198573     2.087097838780638E-6
2.3199999999999998E-5    -0.012359544090276568    -0.020290469256452573    -0.019389648493192357    -0.022835710613333438    -0.015579061122557806    -0.016085697200748022    -0.01826145785900575     3.6537200491925374E-6
2.34E-5                  -0.014754758045428754    -0.02096458714195393     -0.019231277138722348    -0.02357760264883635     -0.015032026609822696    -0.016104842579143963    -0.018264221410617978    5.780026992104257E-6
2.3599999999999998E-5    -0.01724957987124987     -0.021074149963278214    -0.01854468212248159     -0.02315723945887274     -0.01517277083736554     -0.01611473664180251     -0.018244725500815656    6.923780535179651E-6
2.38E-5                  -0.019150182939104275    -0.020659698387254344    -0.01746043888837427     -0.021924214401951657    -0.016351212325463587    -0.016067283017998195    -0.018191917792480958    6.914902791678281E-6
2.4E-5                   -0.020101939166126768    -0.019772725475067057    -0.01617025189190017     -0.020563132657282785    -0.018081584028817918    -0.015983425579051275    -0.018137162209709616    6.275681859724624E-6
2.42E-5                  -0.01997844904776748     -0.018556936058920826    -0.014968347090919522    -0.019697821811963643    -0.019235039355909977    -0.015931239156892717    -0.018105694138745115    4.983550321414426E-6
2.44E-5                  -0.01893740643403483     -0.017347972184129933    -0.014168067284935814    -0.01954378882210053     -0.0189829322222297      -0.015931271759145663    -0.01808398784723285     3.4230025964190155E-6
2.4599999999999998E-5    -0.017545196814281013    -0.01652642807299629     -0.013944641190639179    -0.019910410319418287    -0.017660288900024884    -0.0159236079164061      -0.018044633262532892    3.3161409776793634E-6
2.48E-5                  -0.016561454539384717    -0.016257369411404977    -0.014247841326623514    -0.020462540407531725    -0.01657146205465467     -0.015848170071425888    -0.01798615398411046     5.4756114687324745E-6
2.4999999999999998E-5    -0.01639620334461569     -0.01644852974915417     -0.01483396206977684     -0.020955133536472773    -0.016749599989530104    -0.01573650819781478     -0.017931011585116743    7.62085638323885E-6
2.52E-5                  -0.01682213624991303     -0.016926229250615585    -0.015388566968066184    -0.02126102937517365     -0.01787780210783403     -0.015686277723716967    -0.017891806550283974    6.614281532785287E-6
2.5399999999999997E-5    -0.017316499746185196    -0.01753507816359474     -0.01567495809870881     -0.021300724143710082    -0.018512999804230126    -0.01573254314851064     -0.017856837856965437    2.6645382540604114E-6
2.56E-5                  -0.017610351868393128    -0.01807104475892279     -0.015626084829433208    -0.02105566694553695     -0.017459068896047526    -0.015778768047949743    -0.01781161172180341     -7.23281844864157E-7
2.58E-5                  -0.017780775288484194    -0.018287265248020625    -0.01534188191640742     -0.020625451141033167    -0.014922090728150445    -0.015711331448296343    -0.017761763040824996    -1.2660986858419995E-6
2.6E-5                   -0.01791657124608133     -0.01807743749421938     -0.01500429475163759     -0.020229153456104248    -0.01233740668290928     -0.015562780123545837    -0.017721671594276026    -5.428996705656939E-7
2.62E-5                  -0.01794142336769014     -0.017596482215356035    -0.014777091656747536    -0.020067792115866956    -0.01113238156920533     -0.015471537886862083    -0.01768711066411685     -1.135433972701502E-6